s 0.100000000 _0_ RTR  --- 0 INSENS 100 [0 0 0 0] [energy 100.000000 ei 0.000 es 0.000 et 0.000 er 0.000] ------- [0:255 -1:255 64 0] 
N -t 0.102585 -n 81 -e 99.999799
N -t 0.102585 -n 100 -e 99.999799
N -t 0.102585 -n 89 -e 99.999799
N -t 0.102585 -n 24 -e 99.999799
N -t 0.102585 -n 99 -e 99.999799
N -t 0.102585 -n 34 -e 99.999799
N -t 0.102585 -n 76 -e 99.999799
N -t 0.102585 -n 26 -e 99.999799
N -t 0.102585 -n 74 -e 99.999799
N -t 0.102585 -n 64 -e 99.999799
N -t 0.102585 -n 16 -e 99.999799
N -t 0.102585 -n 6 -e 99.999799
N -t 0.102585 -n 30 -e 99.999799
N -t 0.102585 -n 82 -e 99.999799
N -t 0.102585 -n 44 -e 99.999799
r 0.106866011 _81_ RTR  --- 0 INSENS 100 [0 ffffffff 0 800] [energy 99.999799 ei 0.000 es 0.000 et 0.000 er 0.000] ------- [0:255 -1:255 64 0] 
r 0.106866024 _100_ RTR  --- 0 INSENS 100 [0 ffffffff 0 800] [energy 99.999799 ei 0.000 es 0.000 et 0.000 er 0.000] ------- [0:255 -1:255 64 0] 
r 0.106866026 _89_ RTR  --- 0 INSENS 100 [0 ffffffff 0 800] [energy 99.999799 ei 0.000 es 0.000 et 0.000 er 0.000] ------- [0:255 -1:255 64 0] 
r 0.106866030 _24_ RTR  --- 0 INSENS 100 [0 ffffffff 0 800] [energy 99.999799 ei 0.000 es 0.000 et 0.000 er 0.000] ------- [0:255 -1:255 64 0] 
r 0.106866033 _99_ RTR  --- 0 INSENS 100 [0 ffffffff 0 800] [energy 99.999799 ei 0.000 es 0.000 et 0.000 er 0.000] ------- [0:255 -1:255 64 0] 
r 0.106866037 _34_ RTR  --- 0 INSENS 100 [0 ffffffff 0 800] [energy 99.999799 ei 0.000 es 0.000 et 0.000 er 0.000] ------- [0:255 -1:255 64 0] 
r 0.106866045 _76_ RTR  --- 0 INSENS 100 [0 ffffffff 0 800] [energy 99.999799 ei 0.000 es 0.000 et 0.000 er 0.000] ------- [0:255 -1:255 64 0] 
r 0.106866056 _26_ RTR  --- 0 INSENS 100 [0 ffffffff 0 800] [energy 99.999799 ei 0.000 es 0.000 et 0.000 er 0.000] ------- [0:255 -1:255 64 0] 
r 0.106866057 _74_ RTR  --- 0 INSENS 100 [0 ffffffff 0 800] [energy 99.999799 ei 0.000 es 0.000 et 0.000 er 0.000] ------- [0:255 -1:255 64 0] 
r 0.106866058 _64_ RTR  --- 0 INSENS 100 [0 ffffffff 0 800] [energy 99.999799 ei 0.000 es 0.000 et 0.000 er 0.000] ------- [0:255 -1:255 64 0] 
r 0.106866058 _16_ RTR  --- 0 INSENS 100 [0 ffffffff 0 800] [energy 99.999799 ei 0.000 es 0.000 et 0.000 er 0.000] ------- [0:255 -1:255 64 0] 
r 0.106866059 _6_ RTR  --- 0 INSENS 100 [0 ffffffff 0 800] [energy 99.999799 ei 0.000 es 0.000 et 0.000 er 0.000] ------- [0:255 -1:255 64 0] 
r 0.106866061 _30_ RTR  --- 0 INSENS 100 [0 ffffffff 0 800] [energy 99.999799 ei 0.000 es 0.000 et 0.000 er 0.000] ------- [0:255 -1:255 64 0] 
r 0.106866064 _82_ RTR  --- 0 INSENS 100 [0 ffffffff 0 800] [energy 99.999799 ei 0.000 es 0.000 et 0.000 er 0.000] ------- [0:255 -1:255 64 0] 
r 0.106866065 _44_ RTR  --- 0 INSENS 100 [0 ffffffff 0 800] [energy 99.999799 ei 0.000 es 0.000 et 0.000 er 0.000] ------- [0:255 -1:255 64 0] 
f 0.214800708 _81_ RTR  --- 0 INSENS 100 [0 ffffffff 0 800] [energy 99.999799 ei 0.000 es 0.000 et 0.000 er 0.000] ------- [0:255 -1:255 63 0] 
N -t 0.217386 -n 0 -e 99.999596
N -t 0.217386 -n 100 -e 99.999593
N -t 0.217386 -n 34 -e 99.999593
N -t 0.217386 -n 99 -e 99.999593
N -t 0.217386 -n 89 -e 99.999593
N -t 0.217386 -n 24 -e 99.999593
N -t 0.217386 -n 76 -e 99.999593
N -t 0.217386 -n 30 -e 99.999593
N -t 0.217386 -n 44 -e 99.999593
N -t 0.217386 -n 64 -e 99.999593
N -t 0.217386 -n 74 -e 99.999593
N -t 0.217386 -n 82 -e 99.999593
N -t 0.217386 -n 84 -e 99.999718
N -t 0.217386 -n 15 -e 99.999718
N -t 0.217386 -n 26 -e 99.999593
r 0.221666719 _0_ RTR  --- 0 INSENS 100 [0 ffffffff 51 800] [energy 99.999596 ei 0.000 es 0.000 et 0.000 er 0.000] ------- [0:255 -1:255 63 0] 
r 0.221666732 _100_ RTR  --- 0 INSENS 100 [0 ffffffff 51 800] [energy 99.999593 ei 0.000 es 0.000 et 0.000 er 0.000] ------- [0:255 -1:255 63 0] 
r 0.221666735 _34_ RTR  --- 0 INSENS 100 [0 ffffffff 51 800] [energy 99.999593 ei 0.000 es 0.000 et 0.000 er 0.000] ------- [0:255 -1:255 63 0] 
r 0.221666735 _99_ RTR  --- 0 INSENS 100 [0 ffffffff 51 800] [energy 99.999593 ei 0.000 es 0.000 et 0.000 er 0.000] ------- [0:255 -1:255 63 0] 
r 0.221666736 _89_ RTR  --- 0 INSENS 100 [0 ffffffff 51 800] [energy 99.999593 ei 0.000 es 0.000 et 0.000 er 0.000] ------- [0:255 -1:255 63 0] 
r 0.221666750 _24_ RTR  --- 0 INSENS 100 [0 ffffffff 51 800] [energy 99.999593 ei 0.000 es 0.000 et 0.000 er 0.000] ------- [0:255 -1:255 63 0] 
r 0.221666754 _76_ RTR  --- 0 INSENS 100 [0 ffffffff 51 800] [energy 99.999593 ei 0.000 es 0.000 et 0.000 er 0.000] ------- [0:255 -1:255 63 0] 
r 0.221666759 _30_ RTR  --- 0 INSENS 100 [0 ffffffff 51 800] [energy 99.999593 ei 0.000 es 0.000 et 0.000 er 0.000] ------- [0:255 -1:255 63 0] 
r 0.221666762 _44_ RTR  --- 0 INSENS 100 [0 ffffffff 51 800] [energy 99.999593 ei 0.000 es 0.000 et 0.000 er 0.000] ------- [0:255 -1:255 63 0] 
r 0.221666763 _64_ RTR  --- 0 INSENS 100 [0 ffffffff 51 800] [energy 99.999593 ei 0.000 es 0.000 et 0.000 er 0.000] ------- [0:255 -1:255 63 0] 
r 0.221666767 _74_ RTR  --- 0 INSENS 100 [0 ffffffff 51 800] [energy 99.999593 ei 0.000 es 0.000 et 0.000 er 0.000] ------- [0:255 -1:255 63 0] 
r 0.221666770 _82_ RTR  --- 0 INSENS 100 [0 ffffffff 51 800] [energy 99.999593 ei 0.000 es 0.000 et 0.000 er 0.000] ------- [0:255 -1:255 63 0] 
r 0.221666771 _84_ RTR  --- 0 INSENS 100 [0 ffffffff 51 800] [energy 99.999718 ei 0.000 es 0.000 et 0.000 er 0.000] ------- [0:255 -1:255 63 0] 
r 0.221666773 _15_ RTR  --- 0 INSENS 100 [0 ffffffff 51 800] [energy 99.999718 ei 0.000 es 0.000 et 0.000 er 0.000] ------- [0:255 -1:255 63 0] 
r 0.221666773 _26_ RTR  --- 0 INSENS 100 [0 ffffffff 51 800] [energy 99.999593 ei 0.000 es 0.000 et 0.000 er 0.000] ------- [0:255 -1:255 63 0] 
f 0.246681604 _26_ RTR  --- 0 INSENS 100 [0 ffffffff 0 800] [energy 99.999593 ei 0.000 es 0.000 et 0.000 er 0.000] ------- [0:255 -1:255 63 0] 
N -t 0.248627 -n 16 -e 99.999570
N -t 0.248627 -n 42 -e 99.999695
N -t 0.248627 -n 24 -e 99.999445
N -t 0.248627 -n 79 -e 99.999695
N -t 0.248627 -n 76 -e 99.999445
N -t 0.248627 -n 32 -e 99.999695
N -t 0.248627 -n 13 -e 99.999695
N -t 0.248627 -n 0 -e 99.999449
N -t 0.248627 -n 50 -e 99.999695
N -t 0.248627 -n 64 -e 99.999445
N -t 0.248627 -n 99 -e 99.999445
N -t 0.248627 -n 81 -e 99.999449
r 0.252907607 _16_ RTR  --- 0 INSENS 100 [0 ffffffff 1a 800] [energy 99.999570 ei 0.000 es 0.000 et 0.000 er 0.000] ------- [0:255 -1:255 63 0] 
r 0.252907629 _42_ RTR  --- 0 INSENS 100 [0 ffffffff 1a 800] [energy 99.999695 ei 0.000 es 0.000 et 0.000 er 0.000] ------- [0:255 -1:255 63 0] 
r 0.252907635 _24_ RTR  --- 0 INSENS 100 [0 ffffffff 1a 800] [energy 99.999445 ei 0.000 es 0.000 et 0.000 er 0.000] ------- [0:255 -1:255 63 0] 
r 0.252907646 _79_ RTR  --- 0 INSENS 100 [0 ffffffff 1a 800] [energy 99.999695 ei 0.000 es 0.000 et 0.000 er 0.000] ------- [0:255 -1:255 63 0] 
r 0.252907652 _76_ RTR  --- 0 INSENS 100 [0 ffffffff 1a 800] [energy 99.999445 ei 0.000 es 0.000 et 0.000 er 0.000] ------- [0:255 -1:255 63 0] 
r 0.252907652 _32_ RTR  --- 0 INSENS 100 [0 ffffffff 1a 800] [energy 99.999695 ei 0.000 es 0.000 et 0.000 er 0.000] ------- [0:255 -1:255 63 0] 
r 0.252907656 _13_ RTR  --- 0 INSENS 100 [0 ffffffff 1a 800] [energy 99.999695 ei 0.000 es 0.000 et 0.000 er 0.000] ------- [0:255 -1:255 63 0] 
r 0.252907660 _0_ RTR  --- 0 INSENS 100 [0 ffffffff 1a 800] [energy 99.999449 ei 0.000 es 0.000 et 0.000 er 0.000] ------- [0:255 -1:255 63 0] 
r 0.252907667 _50_ RTR  --- 0 INSENS 100 [0 ffffffff 1a 800] [energy 99.999695 ei 0.000 es 0.000 et 0.000 er 0.000] ------- [0:255 -1:255 63 0] 
r 0.252907668 _64_ RTR  --- 0 INSENS 100 [0 ffffffff 1a 800] [energy 99.999445 ei 0.000 es 0.000 et 0.000 er 0.000] ------- [0:255 -1:255 63 0] 
r 0.252907668 _99_ RTR  --- 0 INSENS 100 [0 ffffffff 1a 800] [energy 99.999445 ei 0.000 es 0.000 et 0.000 er 0.000] ------- [0:255 -1:255 63 0] 
r 0.252907669 _81_ RTR  --- 0 INSENS 100 [0 ffffffff 1a 800] [energy 99.999449 ei 0.000 es 0.000 et 0.000 er 0.000] ------- [0:255 -1:255 63 0] 
f 0.357200603 _84_ RTR  --- 0 INSENS 100 [0 ffffffff 51 800] [energy 99.999718 ei 0.000 es 0.000 et 0.000 er 0.000] ------- [0:255 -1:255 62 0] 
N -t 0.357546 -n 82 -e 99.999368
N -t 0.357546 -n 64 -e 99.999243
N -t 0.357546 -n 44 -e 99.999368
N -t 0.357546 -n 30 -e 99.999368
N -t 0.357546 -n 99 -e 99.999243
N -t 0.357546 -n 86 -e 99.999618
N -t 0.357546 -n 20 -e 99.999618
N -t 0.357546 -n 76 -e 99.999243
N -t 0.357546 -n 34 -e 99.999368
N -t 0.357546 -n 98 -e 99.999618
N -t 0.357546 -n 85 -e 99.999618
N -t 0.357546 -n 81 -e 99.999246
r 0.361826637 _82_ RTR  --- 0 INSENS 100 [0 ffffffff 54 800] [energy 99.999368 ei 0.000 es 0.000 et 0.000 er 0.000] ------- [0:255 -1:255 62 0] 
r 0.361826638 _64_ RTR  --- 0 INSENS 100 [0 ffffffff 54 800] [energy 99.999243 ei 0.000 es 0.000 et 0.000 er 0.001] ------- [0:255 -1:255 62 0] 
r 0.361826639 _44_ RTR  --- 0 INSENS 100 [0 ffffffff 54 800] [energy 99.999368 ei 0.000 es 0.000 et 0.000 er 0.000] ------- [0:255 -1:255 62 0] 
r 0.361826639 _30_ RTR  --- 0 INSENS 100 [0 ffffffff 54 800] [energy 99.999368 ei 0.000 es 0.000 et 0.000 er 0.000] ------- [0:255 -1:255 62 0] 
r 0.361826641 _99_ RTR  --- 0 INSENS 100 [0 ffffffff 54 800] [energy 99.999243 ei 0.000 es 0.000 et 0.000 er 0.001] ------- [0:255 -1:255 62 0] 
r 0.361826647 _86_ RTR  --- 0 INSENS 100 [0 ffffffff 54 800] [energy 99.999618 ei 0.000 es 0.000 et 0.000 er 0.000] ------- [0:255 -1:255 62 0] 
r 0.361826648 _20_ RTR  --- 0 INSENS 100 [0 ffffffff 54 800] [energy 99.999618 ei 0.000 es 0.000 et 0.000 er 0.000] ------- [0:255 -1:255 62 0] 
r 0.361826652 _76_ RTR  --- 0 INSENS 100 [0 ffffffff 54 800] [energy 99.999243 ei 0.000 es 0.000 et 0.000 er 0.001] ------- [0:255 -1:255 62 0] 
r 0.361826656 _34_ RTR  --- 0 INSENS 100 [0 ffffffff 54 800] [energy 99.999368 ei 0.000 es 0.000 et 0.000 er 0.000] ------- [0:255 -1:255 62 0] 
r 0.361826658 _98_ RTR  --- 0 INSENS 100 [0 ffffffff 54 800] [energy 99.999618 ei 0.000 es 0.000 et 0.000 er 0.000] ------- [0:255 -1:255 62 0] 
r 0.361826660 _85_ RTR  --- 0 INSENS 100 [0 ffffffff 54 800] [energy 99.999618 ei 0.000 es 0.000 et 0.000 er 0.000] ------- [0:255 -1:255 62 0] 
r 0.361826665 _81_ RTR  --- 0 INSENS 100 [0 ffffffff 54 800] [energy 99.999246 ei 0.000 es 0.000 et 0.000 er 0.000] ------- [0:255 -1:255 62 0] 
f 0.470624698 _89_ RTR  --- 0 INSENS 100 [0 ffffffff 0 800] [energy 99.999593 ei 0.000 es 0.000 et 0.000 er 0.000] ------- [0:255 -1:255 63 0] 
N -t 0.470970 -n 100 -e 99.999287
N -t 0.470970 -n 0 -e 99.999165
N -t 0.470970 -n 81 -e 99.999040
N -t 0.470970 -n 74 -e 99.999287
N -t 0.470970 -n 34 -e 99.999162
N -t 0.470970 -n 24 -e 99.999162
N -t 0.470970 -n 6 -e 99.999412
N -t 0.470970 -n 68 -e 99.999537
N -t 0.470970 -n 15 -e 99.999412
N -t 0.470970 -n 99 -e 99.999037
N -t 0.470970 -n 63 -e 99.999537
N -t 0.470970 -n 71 -e 99.999537
r 0.475250702 _100_ RTR  --- 0 INSENS 100 [0 ffffffff 59 800] [energy 99.999287 ei 0.000 es 0.000 et 0.000 er 0.000] ------- [0:255 -1:255 63 0] 
r 0.475250724 _0_ RTR  --- 0 INSENS 100 [0 ffffffff 59 800] [energy 99.999165 ei 0.000 es 0.000 et 0.000 er 0.000] ------- [0:255 -1:255 63 0] 
r 0.475250726 _81_ RTR  --- 0 INSENS 100 [0 ffffffff 59 800] [energy 99.999040 ei 0.000 es 0.000 et 0.000 er 0.001] ------- [0:255 -1:255 63 0] 
r 0.475250730 _74_ RTR  --- 0 INSENS 100 [0 ffffffff 59 800] [energy 99.999287 ei 0.000 es 0.000 et 0.000 er 0.000] ------- [0:255 -1:255 63 0] 
r 0.475250739 _34_ RTR  --- 0 INSENS 100 [0 ffffffff 59 800] [energy 99.999162 ei 0.000 es 0.000 et 0.000 er 0.001] ------- [0:255 -1:255 63 0] 
r 0.475250744 _24_ RTR  --- 0 INSENS 100 [0 ffffffff 59 800] [energy 99.999162 ei 0.000 es 0.000 et 0.000 er 0.001] ------- [0:255 -1:255 63 0] 
r 0.475250745 _6_ RTR  --- 0 INSENS 100 [0 ffffffff 59 800] [energy 99.999412 ei 0.000 es 0.000 et 0.000 er 0.000] ------- [0:255 -1:255 63 0] 
r 0.475250746 _68_ RTR  --- 0 INSENS 100 [0 ffffffff 59 800] [energy 99.999537 ei 0.000 es 0.000 et 0.000 er 0.000] ------- [0:255 -1:255 63 0] 
r 0.475250746 _15_ RTR  --- 0 INSENS 100 [0 ffffffff 59 800] [energy 99.999412 ei 0.000 es 0.000 et 0.000 er 0.000] ------- [0:255 -1:255 63 0] 
r 0.475250753 _99_ RTR  --- 0 INSENS 100 [0 ffffffff 59 800] [energy 99.999037 ei 0.000 es 0.000 et 0.000 er 0.001] ------- [0:255 -1:255 63 0] 
r 0.475250760 _63_ RTR  --- 0 INSENS 100 [0 ffffffff 59 800] [energy 99.999537 ei 0.000 es 0.000 et 0.000 er 0.000] ------- [0:255 -1:255 63 0] 
r 0.475250763 _71_ RTR  --- 0 INSENS 100 [0 ffffffff 59 800] [energy 99.999537 ei 0.000 es 0.000 et 0.000 er 0.000] ------- [0:255 -1:255 63 0] 
f 0.483275891 _82_ RTR  --- 0 INSENS 100 [0 ffffffff 0 800] [energy 99.999368 ei 0.000 es 0.000 et 0.000 er 0.000] ------- [0:255 -1:255 63 0] 
N -t 0.484581 -n 64 -e 99.999027
N -t 0.484581 -n 76 -e 99.999027
N -t 0.484581 -n 84 -e 99.999281
N -t 0.484581 -n 99 -e 99.998902
N -t 0.484581 -n 32 -e 99.999402
N -t 0.484581 -n 85 -e 99.999402
N -t 0.484581 -n 50 -e 99.999402
N -t 0.484581 -n 81 -e 99.998906
N -t 0.484581 -n 9 -e 99.999527
N -t 0.484581 -n 30 -e 99.999152
N -t 0.484581 -n 0 -e 99.999031
N -t 0.484581 -n 44 -e 99.999152
N -t 0.484581 -n 34 -e 99.999027
r 0.488861897 _64_ RTR  --- 0 INSENS 100 [0 ffffffff 52 800] [energy 99.999027 ei 0.000 es 0.000 et 0.000 er 0.001] ------- [0:255 -1:255 63 0] 
r 0.488861914 _76_ RTR  --- 0 INSENS 100 [0 ffffffff 52 800] [energy 99.999027 ei 0.000 es 0.000 et 0.000 er 0.001] ------- [0:255 -1:255 63 0] 
r 0.488861925 _84_ RTR  --- 0 INSENS 100 [0 ffffffff 52 800] [energy 99.999281 ei 0.000 es 0.000 et 0.000 er 0.000] ------- [0:255 -1:255 63 0] 
r 0.488861926 _99_ RTR  --- 0 INSENS 100 [0 ffffffff 52 800] [energy 99.998902 ei 0.000 es 0.000 et 0.000 er 0.001] ------- [0:255 -1:255 63 0] 
r 0.488861938 _32_ RTR  --- 0 INSENS 100 [0 ffffffff 52 800] [energy 99.999402 ei 0.000 es 0.000 et 0.000 er 0.000] ------- [0:255 -1:255 63 0] 
r 0.488861939 _85_ RTR  --- 0 INSENS 100 [0 ffffffff 52 800] [energy 99.999402 ei 0.000 es 0.000 et 0.000 er 0.000] ------- [0:255 -1:255 63 0] 
r 0.488861946 _50_ RTR  --- 0 INSENS 100 [0 ffffffff 52 800] [energy 99.999402 ei 0.000 es 0.000 et 0.000 er 0.000] ------- [0:255 -1:255 63 0] 
r 0.488861952 _81_ RTR  --- 0 INSENS 100 [0 ffffffff 52 800] [energy 99.998906 ei 0.000 es 0.000 et 0.000 er 0.001] ------- [0:255 -1:255 63 0] 
r 0.488861953 _9_ RTR  --- 0 INSENS 100 [0 ffffffff 52 800] [energy 99.999527 ei 0.000 es 0.000 et 0.000 er 0.000] ------- [0:255 -1:255 63 0] 
r 0.488861954 _30_ RTR  --- 0 INSENS 100 [0 ffffffff 52 800] [energy 99.999152 ei 0.000 es 0.000 et 0.000 er 0.001] ------- [0:255 -1:255 63 0] 
r 0.488861955 _0_ RTR  --- 0 INSENS 100 [0 ffffffff 52 800] [energy 99.999031 ei 0.000 es 0.000 et 0.000 er 0.001] ------- [0:255 -1:255 63 0] 
r 0.488861955 _44_ RTR  --- 0 INSENS 100 [0 ffffffff 52 800] [energy 99.999152 ei 0.000 es 0.000 et 0.000 er 0.001] ------- [0:255 -1:255 63 0] 
r 0.488861957 _34_ RTR  --- 0 INSENS 100 [0 ffffffff 52 800] [energy 99.999027 ei 0.000 es 0.000 et 0.000 er 0.001] ------- [0:255 -1:255 63 0] 
f 0.517183330 _86_ RTR  --- 0 INSENS 100 [0 ffffffff 54 800] [energy 99.999618 ei 0.000 es 0.000 et 0.000 er 0.000] ------- [0:255 -1:255 61 0] 
N -t 0.519768 -n 98 -e 99.999377
N -t 0.519768 -n 44 -e 99.999002
N -t 0.519768 -n 30 -e 99.999002
N -t 0.519768 -n 93 -e 99.999502
N -t 0.519768 -n 84 -e 99.999131
N -t 0.519768 -n 38 -e 99.999502
N -t 0.519768 -n 20 -e 99.999377
N -t 0.519768 -n 34 -e 99.998877
N -t 0.519768 -n 78 -e 99.999502
N -t 0.519768 -n 99 -e 99.998752
r 0.524049341 _98_ RTR  --- 0 INSENS 100 [0 ffffffff 56 800] [energy 99.999377 ei 0.000 es 0.000 et 0.000 er 0.000] ------- [0:255 -1:255 61 0] 
r 0.524049350 _44_ RTR  --- 0 INSENS 100 [0 ffffffff 56 800] [energy 99.999002 ei 0.000 es 0.000 et 0.000 er 0.001] ------- [0:255 -1:255 61 0] 
r 0.524049353 _30_ RTR  --- 0 INSENS 100 [0 ffffffff 56 800] [energy 99.999002 ei 0.000 es 0.000 et 0.000 er 0.001] ------- [0:255 -1:255 61 0] 
r 0.524049370 _93_ RTR  --- 0 INSENS 100 [0 ffffffff 56 800] [energy 99.999502 ei 0.000 es 0.000 et 0.000 er 0.000] ------- [0:255 -1:255 61 0] 
r 0.524049374 _84_ RTR  --- 0 INSENS 100 [0 ffffffff 56 800] [energy 99.999131 ei 0.000 es 0.000 et 0.000 er 0.000] ------- [0:255 -1:255 61 0] 
r 0.524049376 _38_ RTR  --- 0 INSENS 100 [0 ffffffff 56 800] [energy 99.999502 ei 0.000 es 0.000 et 0.000 er 0.000] ------- [0:255 -1:255 61 0] 
r 0.524049379 _20_ RTR  --- 0 INSENS 100 [0 ffffffff 56 800] [energy 99.999377 ei 0.000 es 0.000 et 0.000 er 0.000] ------- [0:255 -1:255 61 0] 
r 0.524049380 _34_ RTR  --- 0 INSENS 100 [0 ffffffff 56 800] [energy 99.998877 ei 0.000 es 0.000 et 0.000 er 0.001] ------- [0:255 -1:255 61 0] 
r 0.524049392 _78_ RTR  --- 0 INSENS 100 [0 ffffffff 56 800] [energy 99.999502 ei 0.000 es 0.000 et 0.000 er 0.000] ------- [0:255 -1:255 61 0] 
r 0.524049394 _99_ RTR  --- 0 INSENS 100 [0 ffffffff 56 800] [energy 99.998752 ei 0.000 es 0.000 et 0.000 er 0.001] ------- [0:255 -1:255 61 0] 
f 0.560105300 _34_ RTR  --- 0 INSENS 100 [0 ffffffff 0 800] [energy 99.998877 ei 0.000 es 0.000 et 0.000 er 0.001] ------- [0:255 -1:255 63 0] 
f 0.562139465 _44_ RTR  --- 0 INSENS 100 [0 ffffffff 0 800] [energy 99.999002 ei 0.000 es 0.000 et 0.000 er 0.001] ------- [0:255 -1:255 63 0] 
N -t 0.562370 -n 81 -e 99.998725
N -t 0.562370 -n 30 -e 99.998847
N -t 0.562370 -n 44 -e 99.998847
N -t 0.562370 -n 99 -e 99.998597
N -t 0.562370 -n 0 -e 99.998850
N -t 0.562370 -n 100 -e 99.999097
N -t 0.562370 -n 89 -e 99.999100
N -t 0.562370 -n 86 -e 99.999225
N -t 0.562370 -n 84 -e 99.998975
N -t 0.562370 -n 15 -e 99.999222
N -t 0.562370 -n 98 -e 99.999222
N -t 0.562370 -n 76 -e 99.998847
N -t 0.562370 -n 64 -e 99.998847
N -t 0.562370 -n 82 -e 99.998975
r 0.566651326 _81_ RTR  --- 0 INSENS 100 [0 ffffffff 22 800] [energy 99.998725 ei 0.000 es 0.000 et 0.000 er 0.001] ------- [0:255 -1:255 63 0] 
r 0.566651328 _30_ RTR  --- 0 INSENS 100 [0 ffffffff 22 800] [energy 99.998847 ei 0.000 es 0.000 et 0.000 er 0.001] ------- [0:255 -1:255 63 0] 
r 0.566651332 _44_ RTR  --- 0 INSENS 100 [0 ffffffff 22 800] [energy 99.998825 ei 0.000 es 0.000 et 0.000 er 0.001] ------- [0:255 -1:255 63 0] 
r 0.566651334 _99_ RTR  --- 0 INSENS 100 [0 ffffffff 22 800] [energy 99.998597 ei 0.000 es 0.000 et 0.000 er 0.001] ------- [0:255 -1:255 63 0] 
r 0.566651337 _0_ RTR  --- 0 INSENS 100 [0 ffffffff 22 800] [energy 99.998850 ei 0.000 es 0.000 et 0.000 er 0.001] ------- [0:255 -1:255 63 0] 
r 0.566651338 _100_ RTR  --- 0 INSENS 100 [0 ffffffff 22 800] [energy 99.999097 ei 0.000 es 0.000 et 0.000 er 0.001] ------- [0:255 -1:255 63 0] 
r 0.566651342 _89_ RTR  --- 0 INSENS 100 [0 ffffffff 22 800] [energy 99.999100 ei 0.000 es 0.000 et 0.000 er 0.000] ------- [0:255 -1:255 63 0] 
r 0.566651350 _86_ RTR  --- 0 INSENS 100 [0 ffffffff 22 800] [energy 99.999225 ei 0.000 es 0.000 et 0.000 er 0.000] ------- [0:255 -1:255 63 0] 
r 0.566651353 _84_ RTR  --- 0 INSENS 100 [0 ffffffff 22 800] [energy 99.998975 ei 0.000 es 0.000 et 0.000 er 0.001] ------- [0:255 -1:255 63 0] 
r 0.566651356 _15_ RTR  --- 0 INSENS 100 [0 ffffffff 22 800] [energy 99.999222 ei 0.000 es 0.000 et 0.000 er 0.000] ------- [0:255 -1:255 63 0] 
r 0.566651357 _98_ RTR  --- 0 INSENS 100 [0 ffffffff 22 800] [energy 99.999222 ei 0.000 es 0.000 et 0.000 er 0.000] ------- [0:255 -1:255 63 0] 
r 0.566651359 _76_ RTR  --- 0 INSENS 100 [0 ffffffff 22 800] [energy 99.998847 ei 0.000 es 0.000 et 0.000 er 0.001] ------- [0:255 -1:255 63 0] 
r 0.566651362 _64_ RTR  --- 0 INSENS 100 [0 ffffffff 22 800] [energy 99.998847 ei 0.000 es 0.000 et 0.000 er 0.001] ------- [0:255 -1:255 63 0] 
r 0.566651367 _82_ RTR  --- 0 INSENS 100 [0 ffffffff 22 800] [energy 99.998975 ei 0.000 es 0.000 et 0.000 er 0.001] ------- [0:255 -1:255 63 0] 
N -t 0.568692 -n 30 -e 99.998718
N -t 0.568692 -n 86 -e 99.999096
N -t 0.568692 -n 98 -e 99.999093
N -t 0.568692 -n 34 -e 99.998596
N -t 0.568693 -n 84 -e 99.998846
N -t 0.568693 -n 99 -e 99.998468
N -t 0.568693 -n 81 -e 99.998596
N -t 0.568693 -n 93 -e 99.999343
N -t 0.568693 -n 20 -e 99.999218
N -t 0.568693 -n 38 -e 99.999343
N -t 0.568693 -n 64 -e 99.998718
N -t 0.568693 -n 82 -e 99.998846
N -t 0.568693 -n 0 -e 99.998721
N -t 0.568693 -n 78 -e 99.999343
r 0.572973469 _30_ RTR  --- 0 INSENS 100 [0 ffffffff 2c 800] [energy 99.998718 ei 0.000 es 0.000 et 0.000 er 0.001] ------- [0:255 -1:255 63 0] 
r 0.572973484 _86_ RTR  --- 0 INSENS 100 [0 ffffffff 2c 800] [energy 99.999096 ei 0.000 es 0.000 et 0.000 er 0.000] ------- [0:255 -1:255 63 0] 
r 0.572973494 _98_ RTR  --- 0 INSENS 100 [0 ffffffff 2c 800] [energy 99.999093 ei 0.000 es 0.000 et 0.000 er 0.001] ------- [0:255 -1:255 63 0] 
r 0.572973496 _34_ RTR  --- 0 INSENS 100 [0 ffffffff 2c 800] [energy 99.998596 ei 0.000 es 0.000 et 0.000 er 0.001] ------- [0:255 -1:255 63 0] 
r 0.572973501 _84_ RTR  --- 0 INSENS 100 [0 ffffffff 2c 800] [energy 99.998846 ei 0.000 es 0.000 et 0.000 er 0.001] ------- [0:255 -1:255 63 0] 
r 0.572973510 _99_ RTR  --- 0 INSENS 100 [0 ffffffff 2c 800] [energy 99.998468 ei 0.000 es 0.000 et 0.000 er 0.001] ------- [0:255 -1:255 63 0] 
r 0.572973519 _81_ RTR  --- 0 INSENS 100 [0 ffffffff 2c 800] [energy 99.998596 ei 0.000 es 0.000 et 0.000 er 0.001] ------- [0:255 -1:255 63 0] 
r 0.572973523 _93_ RTR  --- 0 INSENS 100 [0 ffffffff 2c 800] [energy 99.999343 ei 0.000 es 0.000 et 0.000 er 0.000] ------- [0:255 -1:255 63 0] 
r 0.572973524 _20_ RTR  --- 0 INSENS 100 [0 ffffffff 2c 800] [energy 99.999218 ei 0.000 es 0.000 et 0.000 er 0.000] ------- [0:255 -1:255 63 0] 
r 0.572973525 _38_ RTR  --- 0 INSENS 100 [0 ffffffff 2c 800] [energy 99.999343 ei 0.000 es 0.000 et 0.000 er 0.000] ------- [0:255 -1:255 63 0] 
r 0.572973527 _64_ RTR  --- 0 INSENS 100 [0 ffffffff 2c 800] [energy 99.998718 ei 0.000 es 0.000 et 0.000 er 0.001] ------- [0:255 -1:255 63 0] 
r 0.572973529 _82_ RTR  --- 0 INSENS 100 [0 ffffffff 2c 800] [energy 99.998846 ei 0.000 es 0.000 et 0.000 er 0.001] ------- [0:255 -1:255 63 0] 
r 0.572973530 _0_ RTR  --- 0 INSENS 100 [0 ffffffff 2c 800] [energy 99.998721 ei 0.000 es 0.000 et 0.000 er 0.001] ------- [0:255 -1:255 63 0] 
r 0.572973530 _78_ RTR  --- 0 INSENS 100 [0 ffffffff 2c 800] [energy 99.999343 ei 0.000 es 0.000 et 0.000 er 0.000] ------- [0:255 -1:255 63 0] 
f 0.598196558 _30_ RTR  --- 0 INSENS 100 [0 ffffffff 0 800] [energy 99.998718 ei 0.000 es 0.000 et 0.000 er 0.001] ------- [0:255 -1:255 63 0] 
N -t 0.599182 -n 44 -e 99.998552
N -t 0.599182 -n 86 -e 99.998949
N -t 0.599182 -n 34 -e 99.998449
N -t 0.599182 -n 98 -e 99.998946
N -t 0.599182 -n 84 -e 99.998699
N -t 0.599182 -n 99 -e 99.998321
N -t 0.599182 -n 81 -e 99.998449
N -t 0.599182 -n 64 -e 99.998571
N -t 0.599182 -n 0 -e 99.998574
N -t 0.599182 -n 93 -e 99.999196
N -t 0.599182 -n 20 -e 99.999071
N -t 0.599182 -n 38 -e 99.999196
N -t 0.599182 -n 82 -e 99.998699
N -t 0.599182 -n 100 -e 99.998946
N -t 0.599182 -n 78 -e 99.999196
N -t 0.599182 -n 76 -e 99.998696
r 0.603462562 _44_ RTR  --- 0 INSENS 100 [0 ffffffff 1e 800] [energy 99.998552 ei 0.000 es 0.000 et 0.000 er 0.001] ------- [0:255 -1:255 63 0] 
r 0.603462582 _86_ RTR  --- 0 INSENS 100 [0 ffffffff 1e 800] [energy 99.998949 ei 0.000 es 0.000 et 0.000 er 0.001] ------- [0:255 -1:255 63 0] 
r 0.603462586 _34_ RTR  --- 0 INSENS 100 [0 ffffffff 1e 800] [energy 99.998449 ei 0.000 es 0.000 et 0.000 er 0.001] ------- [0:255 -1:255 63 0] 
r 0.603462590 _98_ RTR  --- 0 INSENS 100 [0 ffffffff 1e 800] [energy 99.998946 ei 0.000 es 0.000 et 0.000 er 0.001] ------- [0:255 -1:255 63 0] 
r 0.603462595 _84_ RTR  --- 0 INSENS 100 [0 ffffffff 1e 800] [energy 99.998699 ei 0.000 es 0.000 et 0.000 er 0.001] ------- [0:255 -1:255 63 0] 
r 0.603462600 _99_ RTR  --- 0 INSENS 100 [0 ffffffff 1e 800] [energy 99.998321 ei 0.000 es 0.000 et 0.000 er 0.001] ------- [0:255 -1:255 63 0] 
r 0.603462608 _81_ RTR  --- 0 INSENS 100 [0 ffffffff 1e 800] [energy 99.998449 ei 0.000 es 0.000 et 0.000 er 0.001] ------- [0:255 -1:255 63 0] 
r 0.603462619 _64_ RTR  --- 0 INSENS 100 [0 ffffffff 1e 800] [energy 99.998571 ei 0.000 es 0.000 et 0.000 er 0.001] ------- [0:255 -1:255 63 0] 
r 0.603462619 _0_ RTR  --- 0 INSENS 100 [0 ffffffff 1e 800] [energy 99.998574 ei 0.000 es 0.000 et 0.000 er 0.001] ------- [0:255 -1:255 63 0] 
r 0.603462620 _93_ RTR  --- 0 INSENS 100 [0 ffffffff 1e 800] [energy 99.999196 ei 0.000 es 0.000 et 0.000 er 0.000] ------- [0:255 -1:255 63 0] 
r 0.603462620 _20_ RTR  --- 0 INSENS 100 [0 ffffffff 1e 800] [energy 99.999071 ei 0.000 es 0.000 et 0.000 er 0.001] ------- [0:255 -1:255 63 0] 
r 0.603462621 _38_ RTR  --- 0 INSENS 100 [0 ffffffff 1e 800] [energy 99.999196 ei 0.000 es 0.000 et 0.000 er 0.000] ------- [0:255 -1:255 63 0] 
r 0.603462621 _82_ RTR  --- 0 INSENS 100 [0 ffffffff 1e 800] [energy 99.998699 ei 0.000 es 0.000 et 0.000 er 0.001] ------- [0:255 -1:255 63 0] 
r 0.603462623 _100_ RTR  --- 0 INSENS 100 [0 ffffffff 1e 800] [energy 99.998946 ei 0.000 es 0.000 et 0.000 er 0.001] ------- [0:255 -1:255 63 0] 
r 0.603462624 _78_ RTR  --- 0 INSENS 100 [0 ffffffff 1e 800] [energy 99.999196 ei 0.000 es 0.000 et 0.000 er 0.000] ------- [0:255 -1:255 63 0] 
r 0.603462624 _76_ RTR  --- 0 INSENS 100 [0 ffffffff 1e 800] [energy 99.998696 ei 0.000 es 0.000 et 0.000 er 0.001] ------- [0:255 -1:255 63 0] 
f 0.639496437 _64_ RTR  --- 0 INSENS 100 [0 ffffffff 0 800] [energy 99.998571 ei 0.000 es 0.000 et 0.000 er 0.001] ------- [0:255 -1:255 63 0] 
N -t 0.641761 -n 82 -e 99.998544
N -t 0.641761 -n 76 -e 99.998541
N -t 0.641761 -n 99 -e 99.998166
N -t 0.641761 -n 84 -e 99.998544
N -t 0.641761 -n 32 -e 99.999165
N -t 0.641761 -n 85 -e 99.999165
N -t 0.641761 -n 81 -e 99.998294
N -t 0.641761 -n 50 -e 99.999165
N -t 0.641761 -n 0 -e 99.998419
N -t 0.641761 -n 30 -e 99.998419
N -t 0.641761 -n 34 -e 99.998294
N -t 0.641761 -n 44 -e 99.998396
N -t 0.641762 -n 26 -e 99.999044
N -t 0.641762 -n 16 -e 99.999165
r 0.646042443 _82_ RTR  --- 0 INSENS 100 [0 ffffffff 40 800] [energy 99.998544 ei 0.000 es 0.000 et 0.000 er 0.001] ------- [0:255 -1:255 63 0] 
r 0.646042454 _76_ RTR  --- 0 INSENS 100 [0 ffffffff 40 800] [energy 99.998541 ei 0.000 es 0.000 et 0.000 er 0.001] ------- [0:255 -1:255 63 0] 
r 0.646042466 _99_ RTR  --- 0 INSENS 100 [0 ffffffff 40 800] [energy 99.998166 ei 0.000 es 0.000 et 0.000 er 0.001] ------- [0:255 -1:255 63 0] 
r 0.646042472 _84_ RTR  --- 0 INSENS 100 [0 ffffffff 40 800] [energy 99.998544 ei 0.000 es 0.000 et 0.000 er 0.001] ------- [0:255 -1:255 63 0] 
r 0.646042484 _32_ RTR  --- 0 INSENS 100 [0 ffffffff 40 800] [energy 99.999165 ei 0.000 es 0.000 et 0.000 er 0.000] ------- [0:255 -1:255 63 0] 
r 0.646042491 _85_ RTR  --- 0 INSENS 100 [0 ffffffff 40 800] [energy 99.999165 ei 0.000 es 0.000 et 0.000 er 0.000] ------- [0:255 -1:255 63 0] 
r 0.646042492 _81_ RTR  --- 0 INSENS 100 [0 ffffffff 40 800] [energy 99.998294 ei 0.000 es 0.000 et 0.000 er 0.001] ------- [0:255 -1:255 63 0] 
r 0.646042494 _50_ RTR  --- 0 INSENS 100 [0 ffffffff 40 800] [energy 99.999165 ei 0.000 es 0.000 et 0.000 er 0.000] ------- [0:255 -1:255 63 0] 
r 0.646042494 _0_ RTR  --- 0 INSENS 100 [0 ffffffff 40 800] [energy 99.998419 ei 0.000 es 0.000 et 0.000 er 0.001] ------- [0:255 -1:255 63 0] 
r 0.646042497 _30_ RTR  --- 0 INSENS 100 [0 ffffffff 40 800] [energy 99.998419 ei 0.000 es 0.000 et 0.000 er 0.001] ------- [0:255 -1:255 63 0] 
r 0.646042498 _34_ RTR  --- 0 INSENS 100 [0 ffffffff 40 800] [energy 99.998294 ei 0.000 es 0.000 et 0.000 er 0.001] ------- [0:255 -1:255 63 0] 
r 0.646042499 _44_ RTR  --- 0 INSENS 100 [0 ffffffff 40 800] [energy 99.998396 ei 0.000 es 0.000 et 0.000 er 0.001] ------- [0:255 -1:255 63 0] 
r 0.646042501 _26_ RTR  --- 0 INSENS 100 [0 ffffffff 40 800] [energy 99.999044 ei 0.000 es 0.000 et 0.000 er 0.000] ------- [0:255 -1:255 63 0] 
r 0.646042501 _16_ RTR  --- 0 INSENS 100 [0 ffffffff 40 800] [energy 99.999165 ei 0.000 es 0.000 et 0.000 er 0.000] ------- [0:255 -1:255 63 0] 
f 0.676006101 _24_ RTR  --- 0 INSENS 100 [0 ffffffff 0 800] [energy 99.999162 ei 0.000 es 0.000 et 0.000 er 0.001] ------- [0:255 -1:255 63 0] 
N -t 0.676991 -n 0 -e 99.998269
N -t 0.676991 -n 26 -e 99.998894
N -t 0.676991 -n 16 -e 99.999015
N -t 0.676991 -n 81 -e 99.998144
N -t 0.676991 -n 79 -e 99.999265
N -t 0.676991 -n 89 -e 99.998894
N -t 0.676991 -n 100 -e 99.998765
N -t 0.676991 -n 6 -e 99.999140
N -t 0.676991 -n 76 -e 99.998390
N -t 0.676991 -n 99 -e 99.998015
N -t 0.676991 -n 42 -e 99.999265
N -t 0.676991 -n 65 -e 99.999390
N -t 0.676991 -n 68 -e 99.999265
r 0.681272132 _0_ RTR  --- 0 INSENS 100 [0 ffffffff 18 800] [energy 99.998269 ei 0.000 es 0.000 et 0.000 er 0.001] ------- [0:255 -1:255 63 0] 
r 0.681272132 _26_ RTR  --- 0 INSENS 100 [0 ffffffff 18 800] [energy 99.998894 ei 0.000 es 0.000 et 0.000 er 0.001] ------- [0:255 -1:255 63 0] 
r 0.681272135 _16_ RTR  --- 0 INSENS 100 [0 ffffffff 18 800] [energy 99.999015 ei 0.000 es 0.000 et 0.000 er 0.001] ------- [0:255 -1:255 63 0] 
r 0.681272142 _81_ RTR  --- 0 INSENS 100 [0 ffffffff 18 800] [energy 99.998144 ei 0.000 es 0.000 et 0.000 er 0.001] ------- [0:255 -1:255 63 0] 
r 0.681272145 _79_ RTR  --- 0 INSENS 100 [0 ffffffff 18 800] [energy 99.999265 ei 0.000 es 0.000 et 0.000 er 0.000] ------- [0:255 -1:255 63 0] 
r 0.681272147 _89_ RTR  --- 0 INSENS 100 [0 ffffffff 18 800] [energy 99.998894 ei 0.000 es 0.000 et 0.000 er 0.001] ------- [0:255 -1:255 63 0] 
r 0.681272147 _100_ RTR  --- 0 INSENS 100 [0 ffffffff 18 800] [energy 99.998765 ei 0.000 es 0.000 et 0.000 er 0.001] ------- [0:255 -1:255 63 0] 
r 0.681272151 _6_ RTR  --- 0 INSENS 100 [0 ffffffff 18 800] [energy 99.999140 ei 0.000 es 0.000 et 0.000 er 0.000] ------- [0:255 -1:255 63 0] 
r 0.681272151 _76_ RTR  --- 0 INSENS 100 [0 ffffffff 18 800] [energy 99.998390 ei 0.000 es 0.000 et 0.000 er 0.001] ------- [0:255 -1:255 63 0] 
r 0.681272154 _99_ RTR  --- 0 INSENS 100 [0 ffffffff 18 800] [energy 99.998015 ei 0.000 es 0.000 et 0.000 er 0.002] ------- [0:255 -1:255 63 0] 
r 0.681272156 _42_ RTR  --- 0 INSENS 100 [0 ffffffff 18 800] [energy 99.999265 ei 0.000 es 0.000 et 0.000 er 0.000] ------- [0:255 -1:255 63 0] 